
Host: knut

Timers On : Tue Aug  1 12:45:22 2017
Timers Off: Tue Aug  1 12:45:32 2017

Wall Time:       10.00 seconds


***********************************************************
